ITEM: TIMESTEP
0
ITEM: NUMBER OF ATOMS
19
ITEM: BOX BOUNDS pp pp pp
0.9025605765 49.0974394233
0.9025605765 49.0974394233
0.9025605765 49.0974394233
ITEM: ATOMS id type mol x y z
14 3 14 22.4684 31.2259 29.1658
4163 1 1559 23.9672 30.088 28.4023
4164 2 1559 24.7243 30.2167 27.9883
4165 2 1559 23.9445 29.2246 28.5247
5678 1 2064 20.9277 32.2228 29.9101
5679 2 2064 20.1984 32.4722 29.5014
5680 2 2064 20.7315 32.3158 30.755
5846 1 2120 21.2571 29.6878 28.7283
5847 2 2120 21.4117 29.3222 27.9515
5848 2 2120 20.4317 29.4635 28.9
6110 1 2208 23.8968 32.6669 29.2414
6111 2 2208 24.2619 33.0324 29.9444
6112 2 2208 24.5246 32.712 28.6373
8753 1 3089 23.0696 30.3794 30.8755
8754 2 3089 22.6091 30.1222 31.5704
8755 2 3089 23.897 30.2404 31.1148
9260 1 3258 22.2341 31.8463 27.2504
9261 2 3258 21.5801 31.6344 26.7133
9262 2 3258 22.7291 32.3805 26.7701
ITEM: TIMESTEP
5
ITEM: NUMBER OF ATOMS
19
ITEM: BOX BOUNDS pp pp pp
0.9025605765 49.0974394233
0.9025605765 49.0974394233
0.9025605765 49.0974394233
ITEM: ATOMS id type mol x y z
14 3 14 22.4864 31.2099 29.1459
4163 1 1559 23.9321 30.0505 28.4021
4164 2 1559 24.6936 30.2988 28.0562
4165 2 1559 24.0266 29.19 28.5099
5678 1 2064 20.9263 32.1955 29.9175
5679 2 2064 20.1995 32.4126 29.4865
5680 2 2064 20.7232 32.3482 30.7521
5846 1 2120 21.2539 29.6782 28.7497
5847 2 2120 21.3772 29.3305 27.9592
5848 2 2120 20.4305 29.4635 28.9421
6110 1 2208 23.8916 32.6543 29.2052
6111 2 2208 24.2117 33.0036 29.9378
6112 2 2208 24.5367 32.762 28.6278
8753 1 3089 23.0893 30.3576 30.87
8754 2 3089 22.5849 30.0857 31.5279
8755 2 3089 23.8992 30.2042 31.1555
9260 1 3258 22.2358 31.8632 27.2375
9261 2 3258 21.5393 31.6198 26.7718
9262 2 3258 22.6483 32.4239 26.7117
ITEM: TIMESTEP
10
ITEM: NUMBER OF ATOMS
19
ITEM: BOX BOUNDS pp pp pp
0.9025605765 49.0974394233
0.9025605765 49.0974394233
0.9025605765 49.0974394233
ITEM: ATOMS id type mol x y z
14 3 14 22.5069 31.1952 29.1243
4163 1 1559 23.9149 30.0139 28.3924
4164 2 1559 24.6584 30.3311 28.0641
4165 2 1559 24.0677 29.1573 28.4557
5678 1 2064 20.926 32.1647 29.9172
5679 2 2064 20.1981 32.3712 29.483
5680 2 2064 20.7498 32.4025 30.7378
5846 1 2120 21.254 29.6745 28.7591
5847 2 2120 21.3196 29.2685 27.9897
5848 2 2120 20.4517 29.4677 29.0324
6110 1 2208 23.8807 32.6418 29.1807
6111 2 2208 24.148 33.0431 29.9077
6112 2 2208 24.5453 32.7557 28.6273
8753 1 3089 23.0986 30.3498 30.8702
8754 2 3089 22.5707 30.0053 31.4732
8755 2 3089 23.8978 30.1727 31.1719
9260 1 3258 22.2245 31.88 27.2327
9261 2 3258 21.5352 31.6118 26.7702
9262 2 3258 22.619 32.4489 26.7017
ITEM: TIMESTEP
15
ITEM: NUMBER OF ATOMS
19
ITEM: BOX BOUNDS pp pp pp
0.9025605765 49.0974394233
0.9025605765 49.0974394233
0.9025605765 49.0974394233
ITEM: ATOMS id type mol x y z
14 3 14 22.5255 31.1818 29.1038
4163 1 1559 23.9238 29.9834 28.3685
4164 2 1559 24.6528 30.2739 27.9873
4165 2 1559 24.0329 29.118 28.3872
5678 1 2064 20.9325 32.1322 29.9071
5679 2 2064 20.1976 32.3537 29.4926
5680 2 2064 20.8083 32.4293 30.7179
5846 1 2120 21.2545 29.6732 28.7596
5847 2 2120 21.2755 29.1809 28.0397
5848 2 2120 20.4856 29.4753 29.1211
6110 1 2208 23.8684 32.6354 29.1687
6111 2 2208 24.0988 33.1172 29.8585
6112 2 2208 24.5571 32.6965 28.6366
8753 1 3089 23.0948 30.3537 30.8724
8754 2 3089 22.5735 29.9297 31.4288
8755 2 3089 23.897 30.168 31.1608
9260 1 3258 22.202 31.8937 27.2371
9261 2 3258 21.5612 31.6284 26.708
9262 2 3258 22.6602 32.4476 26.7428
ITEM: TIMESTEP
20
ITEM: NUMBER OF ATOMS
19
ITEM: BOX BOUNDS pp pp pp
0.9025605765 49.0974394233
0.9025605765 49.0974394233
0.9025605765 49.0974394233
ITEM: ATOMS id type mol x y z
14 3 14 22.5401 31.1679 29.0859
4163 1 1559 23.9562 29.9602 28.3311
4164 2 1559 24.6565 30.1345 27.8408
4165 2 1559 23.9298 29.0884 28.3485
5678 1 2064 20.9485 32.1016 29.8892
5679 2 2064 20.211 32.3598 29.5011
5680 2 2064 20.8677 32.4024 30.7041
5846 1 2120 21.2554 29.6691 28.7571
5847 2 2120 21.2625 29.1228 28.077
5848 2 2120 20.505 29.4835 29.1615
6110 1 2208 23.8604 32.6387 29.1643
6111 2 2208 24.0711 33.1814 29.8141
6112 2 2208 24.5818 32.6158 28.6742
8753 1 3089 23.0804 30.3657 30.8699
8754 2 3089 22.5833 29.9083 31.4221
8755 2 3089 23.8933 30.1959 31.1371
9260 1 3258 22.179 31.9046 27.2479
9261 2 3258 21.5818 31.6732 26.6555
9262 2 3258 22.7174 32.4274 26.8031
ITEM: TIMESTEP
25
ITEM: NUMBER OF ATOMS
19
ITEM: BOX BOUNDS pp pp pp
0.9025605765 49.0974394233
0.9025605765 49.0974394233
0.9025605765 49.0974394233
ITEM: ATOMS id type mol x y z
14 3 14 22.5522 31.1521 29.0699
4163 1 1559 23.9978 29.9424 28.2853
4164 2 1559 24.628 29.9617 27.6823
4165 2 1559 23.8298 29.0915 28.3792
5678 1 2064 20.9725 32.0773 29.8689
5679 2 2064 20.249 32.3839 29.4901
5680 2 2064 20.8918 32.3299 30.7001
5846 1 2120 21.2585 29.6582 28.7541
5847 2 2120 21.269 29.1146 28.0718
5848 2 2120 20.4989 29.4818 29.1452
6110 1 2208 23.8603 32.6487 29.1627
6111 2 2208 24.0482 33.2145 29.7996
6112 2 2208 24.6189 32.5532 28.7426
8753 1 3089 23.0611 30.3831 30.8592
8754 2 3089 22.5833 29.9563 31.4513
8755 2 3089 23.8823 30.2417 31.1177
9260 1 3258 22.1664 31.9141 27.262
9261 2 3258 21.5563 31.7309 26.6659
9262 2 3258 22.7288 32.4225 26.8303
ITEM: TIMESTEP
30
ITEM: NUMBER OF ATOMS
19
ITEM: BOX BOUNDS pp pp pp
0.9025605765 49.0974394233
0.9025605765 49.0974394233
0.9025605765 49.0974394233
ITEM: ATOMS id type mol x y z
14 3 14 22.5658 31.1343 29.0537
4163 1 1559 24.0286 29.9276 28.2412
4164 2 1559 24.572 29.8275 27.5661
4165 2 1559 23.8348 29.1088 28.4717
5678 1 2064 20.9995 32.0636 29.8529
5679 2 2064 20.3052 32.4125 29.4563
5680 2 2064 20.8634 32.2388 30.6966
5846 1 2120 21.2647 29.6386 28.7481
5847 2 2120 21.2795 29.1493 28.026
5848 2 2120 20.4875 29.4593 29.1016
6110 1 2208 23.8677 32.6572 29.1633
6111 2 2208 24.0083 33.2205 29.8145
6112 2 2208 24.6601 32.5422 28.8169
8753 1 3089 23.0434 30.4042 30.8437
8754 2 3089 22.5641 30.0487 31.4801
8755 2 3089 23.8643 30.2833 31.1132
9260 1 3258 22.1652 31.9237 27.2739
9261 2 3258 21.4909 31.7798 26.7395
9262 2 3258 22.6815 32.4558 26.814
ITEM: TIMESTEP
35
ITEM: NUMBER OF ATOMS
19
ITEM: BOX BOUNDS pp pp pp
0.9025605765 49.0974394233
0.9025605765 49.0974394233
0.9025605765 49.0974394233
ITEM: ATOMS id type mol x y z
14 3 14 22.5835 31.1156 29.0346
4163 1 1559 24.036 29.9137 28.2141
4164 2 1559 24.5251 29.7883 27.5027
4165 2 1559 23.9793 29.1179 28.567
5678 1 2064 21.0238 32.0627 29.8442
5679 2 2064 20.3579 32.4266 29.4137
5680 2 2064 20.8 32.1532 30.6826
5846 1 2120 21.2745 29.6134 28.7357
5847 2 2120 21.2916 29.1961 27.9698
5848 2 2120 20.493 29.4075 29.0641
6110 1 2208 23.8794 32.6568 29.1694
6111 2 2208 23.9478 33.217 29.8346
6112 2 2208 24.6953 32.5981 28.8659
8753 1 3089 23.0321 30.4266 30.8307
8754 2 3089 22.5285 30.133 31.4798
8755 2 3089 23.8428 30.3107 31.1314
9260 1 3258 22.1671 31.9353 27.2773
9261 2 3258 21.4335 31.8049 26.8236
9262 2 3258 22.6088 32.5104 26.7923
ITEM: TIMESTEP
40
ITEM: NUMBER OF ATOMS
19
ITEM: BOX BOUNDS pp pp pp
0.9025605765 49.0974394233
0.9025605765 49.0974394233
0.9025605765 49.0974394233
ITEM: ATOMS id type mol x y z
14 3 14 22.6049 31.0969 29.011
4163 1 1559 24.0242 29.9019 28.2169
4164 2 1559 24.4883 29.8494 27.4801
4165 2 1559 24.1795 29.1398 28.612
5678 1 2064 21.0435 32.0723 29.8402
5679 2 2064 20.3865 32.4141 29.3792
5680 2 2064 20.7472 32.0857 30.6607
5846 1 2120 21.2879 29.5894 28.7167
5847 2 2120 21.3147 29.2095 27.9318
5848 2 2120 20.519 29.3356 29.0413
6110 1 2208 23.8915 32.6456 29.1829
6111 2 2208 23.8793 33.2177 29.8413
6112 2 2208 24.7072 32.7005 28.8784
8753 1 3089 23.0286 30.4473 30.827
8754 2 3089 22.4879 30.17 31.4529
8755 2 3089 23.8206 30.3336 31.1748
9260 1 3258 22.1636 31.9495 27.2716
9261 2 3258 21.4178 31.8029 26.8433
9262 2 3258 22.5591 32.5611 26.7914
ITEM: TIMESTEP
45
ITEM: NUMBER OF ATOMS
19
ITEM: BOX BOUNDS pp pp pp
0.9025605765 49.0974394233
0.9025605765 49.0974394233
0.9025605765 49.0974394233
ITEM: ATOMS id type mol x y z
14 3 14 22.626 31.0796 28.9848
4163 1 1559 24.01 29.897 28.2486
4164 2 1559 24.441 29.9483 27.4918
4165 2 1559 24.3266 29.172 28.6162
5678 1 2064 21.0609 32.0857 29.8346
5679 2 2064 20.3856 32.3789 29.3664
5680 2 2064 20.7465 32.0495 30.6476
5846 1 2120 21.3035 29.5715 28.695
5847 2 2120 21.3619 29.1682 27.9236
5848 2 2120 20.5511 29.2769 29.024
6110 1 2208 23.9007 32.6276 29.2021
6111 2 2208 23.8173 33.215 29.8416
6112 2 2208 24.6865 32.8012 28.8653
8753 1 3089 23.0295 30.4637 30.8342
8754 2 3089 22.4576 30.1598 31.4188
8755 2 3089 23.8001 30.3667 31.2315
9260 1 3258 22.1521 31.9647 27.2596
9261 2 3258 21.4493 31.7796 26.7771
9262 2 3258 22.5525 32.5933 26.806
ITEM: TIMESTEP
50
ITEM: NUMBER OF ATOMS
19
ITEM: BOX BOUNDS pp pp pp
0.9025605765 49.0974394233
0.9025605765 49.0974394233
0.9025605765 49.0974394233
ITEM: ATOMS id type mol x y z
14 3 14 22.64 31.0671 28.9615
4163 1 1559 24.0149 29.8971 28.2942
4164 2 1559 24.4058 29.9962 27.5207
4165 2 1559 24.3907 29.1821 28.6239
5678 1 2064 21.0792 32.095 29.8224
5679 2 2064 20.3659 32.3375 29.3826
5680 2 2064 20.8094 32.0673 30.6515
5846 1 2120 21.3197 29.5602 28.6755
5847 2 2120 21.4354 29.092 27.9485
5848 2 2120 20.5645 29.2614 28.9939
6110 1 2208 23.9038 32.6086 29.2217
6111 2 2208 23.7851 33.1882 29.8628
6112 2 2208 24.6513 32.8632 28.8508
8753 1 3089 23.0279 30.4746 30.848
8754 2 3089 22.4495 30.1298 31.4027
8755 2 3089 23.7849 30.4148 31.2774
9260 1 3258 22.1368 31.978 27.2436
9261 2 3258 21.5115 31.7441 26.6819
9262 2 3258 22.5734 32.6011 26.8167
