ITEM: TIMESTEP
0
ITEM: NUMBER OF ATOMS
22
ITEM: BOX BOUNDS pp pp pp
-12.457628299 37.0176282278
-12.457628299 37.0176282278
-12.457628299 37.0176282278
ITEM: ATOMS id type mol x y z
949	1	333	27.7291	25.7896	21.3085
950	2	333	27.4666	26.3876	20.6086
951	2	333	27.9001	26.3588	22.0589
1497	3	521	27.7128	23.7272	21.2095
1971	1	687	26.1004	23.7862	19.9861
1972	2	687	25.9507	23.1961	19.2474
1973	2	687	25.7969	24.6397	19.6768
4677	4	1627	31.2487	25.7388	20.4993
4839	1	1683	28.8903	24.0058	19.5787
4840	2	1683	29.634	24.6075	19.6117
4841	2	1683	28.8589	23.7127	18.668
5530	1	1924	26.6679	23.3139	22.8734
5531	2	1924	26.0598	22.5748	22.8577
5532	2	1924	26.7405	23.5454	23.7993
6667	1	2319	29.4036	23.642	22.3353
6668	2	2319	29.403	23.02	23.0629
6669	2	2319	30.0916	24.2696	22.5568
9409	1	3273	27.9556	21.7661	20.944
9410	2	3273	27.472	20.9433	20.8713
9411	2	3273	28.8714	21.5182	20.8169
11410	4	3968	26.4904	26.8173	18.6842
11785	4	4099	25.1689	20.8364	22.0004
