ITEM: TIMESTEP
0
ITEM: NUMBER OF ATOMS
22
ITEM: BOX BOUNDS pp pp pp
-12.457628299 37.0176282278
-12.457628299 37.0176282278
-12.457628299 37.0176282278
ITEM: ATOMS id type mol x y z
1	3	521	27.7128	23.7272	21.2095
2	4	1627	31.2487	25.7388	20.4993
3	4	3968	26.4904	26.8173	18.6842
4	4	4099	25.1689	20.8364	22.0004
5	1	333	27.7291	25.7896	21.3085
6	2	333	27.4666	26.3876	20.6086
7	2	333	27.9001	26.3588	22.0589
8	1	687	26.1004	23.7862	19.9861
9	2	687	25.9507	23.1961	19.2474
10	2	687	25.7969	24.6397	19.6768
11	1	1683	28.8903	24.0058	19.5787
12	2	1683	29.634	24.6075	19.6117
13	2	1683	28.8589	23.7127	18.668
14	1	1924	26.6679	23.3139	22.8734
15	2	1924	26.0598	22.5748	22.8577
16	2	1924	26.7405	23.5454	23.7993
17	1	2319	29.4036	23.642	22.3353
18	2	2319	29.403	23.02	23.0629
19	2	2319	30.0916	24.2696	22.5568
20	1	3273	27.9556	21.7661	20.944
21	2	3273	27.472	20.9433	20.8713
22	2	3273	28.8714	21.5182	20.8169
